<?xml version="1.0"?>
<VTKFile type="UnstructuredGrid"  version="0.1"  >
<UnstructuredGrid>
<Piece  NumberOfPoints="3665" NumberOfCells="640">
<Points>
<DataArray  type="Float32"  NumberOfComponents="3"  format="ascii">
0.000000 0.000000 0.000000 
0.025000 0.000000 0.000000 
0.050000 0.000000 0.000000 
0.075000 0.000000 0.000000 
0.100000 0.000000 0.000000 
0.000000 0.025000 0.000000 
0.025000 0.025000 0.000000 
0.050000 0.025000 0.000000 
0.075000 0.025000 0.000000 
0.100000 0.025000 0.000000 
0.000000 0.050000 0.000000 
0.025000 0.050000 0.000000 
0.050000 0.050000 0.000000 
0.075000 0.050000 0.000000 
0.100000 0.050000 0.000000 
0.000000 0.075000 0.000000 
0.025000 0.075000 0.000000 
0.050000 0.075000 0.000000 
0.075000 0.075000 0.000000 
0.100000 0.075000 0.000000 
0.000000 0.100000 0.000000 
0.025000 0.100000 0.000000 
0.050000 0.100000 0.000000 
0.075000 0.100000 0.000000 
0.100000 0.100000 0.000000 
0.000000 0.000000 0.025000 
0.025000 0.000000 0.025000 
0.050000 0.000000 0.025000 
0.075000 0.000000 0.025000 
0.100000 0.000000 0.025000 
0.000000 0.025000 0.025000 
0.025000 0.025000 0.025000 
0.050000 0.025000 0.025000 
0.075000 0.025000 0.025000 
0.100000 0.025000 0.025000 
0.000000 0.050000 0.025000 
0.025000 0.050000 0.025000 
0.050000 0.050000 0.025000 
0.075000 0.050000 0.025000 
0.100000 0.050000 0.025000 
0.000000 0.075000 0.025000 
0.025000 0.075000 0.025000 
0.050000 0.075000 0.025000 
0.075000 0.075000 0.025000 
0.100000 0.075000 0.025000 
0.000000 0.100000 0.025000 
0.025000 0.100000 0.025000 
0.050000 0.100000 0.025000 
0.075000 0.100000 0.025000 
0.100000 0.100000 0.025000 
0.000000 0.000000 0.050000 
0.025000 0.000000 0.050000 
0.050000 0.000000 0.050000 
0.075000 0.000000 0.050000 
0.100000 0.000000 0.050000 
0.000000 0.025000 0.050000 
0.025000 0.025000 0.050000 
0.050000 0.025000 0.050000 
0.075000 0.025000 0.050000 
0.100000 0.025000 0.050000 
0.000000 0.050000 0.050000 
0.025000 0.050000 0.050000 
0.050000 0.050000 0.050000 
0.075000 0.050000 0.050000 
0.100000 0.050000 0.050000 
0.000000 0.075000 0.050000 
0.025000 0.075000 0.050000 
0.050000 0.075000 0.050000 
0.075000 0.075000 0.050000 
0.100000 0.075000 0.050000 
0.000000 0.100000 0.050000 
0.025000 0.100000 0.050000 
0.050000 0.100000 0.050000 
0.075000 0.100000 0.050000 
0.100000 0.100000 0.050000 
0.000000 0.000000 0.075000 
0.025000 0.000000 0.075000 
0.050000 0.000000 0.075000 
0.075000 0.000000 0.075000 
0.100000 0.000000 0.075000 
0.000000 0.025000 0.075000 
0.025000 0.025000 0.075000 
0.050000 0.025000 0.075000 
0.075000 0.025000 0.075000 
0.100000 0.025000 0.075000 
0.000000 0.050000 0.075000 
0.025000 0.050000 0.075000 
0.050000 0.050000 0.075000 
0.075000 0.050000 0.075000 
0.100000 0.050000 0.075000 
0.000000 0.075000 0.075000 
0.025000 0.075000 0.075000 
0.050000 0.075000 0.075000 
0.075000 0.075000 0.075000 
0.100000 0.075000 0.075000 
0.000000 0.100000 0.075000 
0.025000 0.100000 0.075000 
0.050000 0.100000 0.075000 
0.075000 0.100000 0.075000 
0.100000 0.100000 0.075000 
0.000000 0.000000 0.100000 
0.025000 0.000000 0.100000 
0.050000 0.000000 0.100000 
0.075000 0.000000 0.100000 
0.100000 0.000000 0.100000 
0.000000 0.025000 0.100000 
0.025000 0.025000 0.100000 
0.050000 0.025000 0.100000 
0.075000 0.025000 0.100000 
0.100000 0.025000 0.100000 
0.000000 0.050000 0.100000 
0.025000 0.050000 0.100000 
0.050000 0.050000 0.100000 
0.075000 0.050000 0.100000 
0.100000 0.050000 0.100000 
0.000000 0.075000 0.100000 
0.025000 0.075000 0.100000 
0.050000 0.075000 0.100000 
0.075000 0.075000 0.100000 
0.100000 0.075000 0.100000 
0.000000 0.100000 0.100000 
0.025000 0.100000 0.100000 
0.050000 0.100000 0.100000 
0.075000 0.100000 0.100000 
0.100000 0.100000 0.100000 
0.000000 0.000000 0.125000 
0.025000 0.000000 0.125000 
0.050000 0.000000 0.125000 
0.075000 0.000000 0.125000 
0.100000 0.000000 0.125000 
0.000000 0.025000 0.125000 
0.025000 0.025000 0.125000 
0.050000 0.025000 0.125000 
0.075000 0.025000 0.125000 
0.100000 0.025000 0.125000 
0.000000 0.050000 0.125000 
0.025000 0.050000 0.125000 
0.050000 0.050000 0.125000 
0.075000 0.050000 0.125000 
0.100000 0.050000 0.125000 
0.000000 0.075000 0.125000 
0.025000 0.075000 0.125000 
0.050000 0.075000 0.125000 
0.075000 0.075000 0.125000 
0.100000 0.075000 0.125000 
0.000000 0.100000 0.125000 
0.025000 0.100000 0.125000 
0.050000 0.100000 0.125000 
0.075000 0.100000 0.125000 
0.100000 0.100000 0.125000 
0.000000 0.000000 0.150000 
0.025000 0.000000 0.150000 
0.050000 0.000000 0.150000 
0.075000 0.000000 0.150000 
0.100000 0.000000 0.150000 
0.000000 0.025000 0.150000 
0.025000 0.025000 0.150000 
0.050000 0.025000 0.150000 
0.075000 0.025000 0.150000 
0.100000 0.025000 0.150000 
0.000000 0.050000 0.150000 
0.025000 0.050000 0.150000 
0.050000 0.050000 0.150000 
0.075000 0.050000 0.150000 
0.100000 0.050000 0.150000 
0.000000 0.075000 0.150000 
0.025000 0.075000 0.150000 
0.050000 0.075000 0.150000 
0.075000 0.075000 0.150000 
0.100000 0.075000 0.150000 
0.000000 0.100000 0.150000 
0.025000 0.100000 0.150000 
0.050000 0.100000 0.150000 
0.075000 0.100000 0.150000 
0.100000 0.100000 0.150000 
0.000000 0.000000 0.175000 
0.025000 0.000000 0.175000 
0.050000 0.000000 0.175000 
0.075000 0.000000 0.175000 
0.100000 0.000000 0.175000 
0.000000 0.025000 0.175000 
0.025000 0.025000 0.175000 
0.050000 0.025000 0.175000 
0.075000 0.025000 0.175000 
0.100000 0.025000 0.175000 
0.000000 0.050000 0.175000 
0.025000 0.050000 0.175000 
0.050000 0.050000 0.175000 
0.075000 0.050000 0.175000 
0.100000 0.050000 0.175000 
0.000000 0.075000 0.175000 
0.025000 0.075000 0.175000 
0.050000 0.075000 0.175000 
0.075000 0.075000 0.175000 
0.100000 0.075000 0.175000 
0.000000 0.100000 0.175000 
0.025000 0.100000 0.175000 
0.050000 0.100000 0.175000 
0.075000 0.100000 0.175000 
0.100000 0.100000 0.175000 
0.000000 0.000000 0.200000 
0.025000 0.000000 0.200000 
0.050000 0.000000 0.200000 
0.075000 0.000000 0.200000 
0.100000 0.000000 0.200000 
0.000000 0.025000 0.200000 
0.025000 0.025000 0.200000 
0.050000 0.025000 0.200000 
0.075000 0.025000 0.200000 
0.100000 0.025000 0.200000 
0.000000 0.050000 0.200000 
0.025000 0.050000 0.200000 
0.050000 0.050000 0.200000 
0.075000 0.050000 0.200000 
0.100000 0.050000 0.200000 
0.000000 0.075000 0.200000 
0.025000 0.075000 0.200000 
0.050000 0.075000 0.200000 
0.075000 0.075000 0.200000 
0.100000 0.075000 0.200000 
0.000000 0.100000 0.200000 
0.025000 0.100000 0.200000 
0.050000 0.100000 0.200000 
0.075000 0.100000 0.200000 
0.100000 0.100000 0.200000 
0.000000 0.000000 0.225000 
0.025000 0.000000 0.225000 
0.050000 0.000000 0.225000 
0.075000 0.000000 0.225000 
0.100000 0.000000 0.225000 
0.000000 0.025000 0.225000 
0.025000 0.025000 0.225000 
0.050000 0.025000 0.225000 
0.075000 0.025000 0.225000 
0.100000 0.025000 0.225000 
0.000000 0.050000 0.225000 
0.025000 0.050000 0.225000 
0.050000 0.050000 0.225000 
0.075000 0.050000 0.225000 
0.100000 0.050000 0.225000 
0.000000 0.075000 0.225000 
0.025000 0.075000 0.225000 
0.050000 0.075000 0.225000 
0.075000 0.075000 0.225000 
0.100000 0.075000 0.225000 
0.000000 0.100000 0.225000 
0.025000 0.100000 0.225000 
0.050000 0.100000 0.225000 
0.075000 0.100000 0.225000 
0.100000 0.100000 0.225000 
0.000000 0.000000 0.250000 
0.025000 0.000000 0.250000 
0.050000 0.000000 0.250000 
0.075000 0.000000 0.250000 
0.100000 0.000000 0.250000 
0.000000 0.025000 0.250000 
0.025000 0.025000 0.250000 
0.050000 0.025000 0.250000 
0.075000 0.025000 0.250000 
0.100000 0.025000 0.250000 
0.000000 0.050000 0.250000 
0.025000 0.050000 0.250000 
0.050000 0.050000 0.250000 
0.075000 0.050000 0.250000 
0.100000 0.050000 0.250000 
0.000000 0.075000 0.250000 
0.025000 0.075000 0.250000 
0.050000 0.075000 0.250000 
0.075000 0.075000 0.250000 
0.100000 0.075000 0.250000 
0.000000 0.100000 0.250000 
0.025000 0.100000 0.250000 
0.050000 0.100000 0.250000 
0.075000 0.100000 0.250000 
0.100000 0.100000 0.250000 
0.000000 0.000000 0.275000 
0.025000 0.000000 0.275000 
0.050000 0.000000 0.275000 
0.075000 0.000000 0.275000 
0.100000 0.000000 0.275000 
0.000000 0.025000 0.275000 
0.025000 0.025000 0.275000 
0.050000 0.025000 0.275000 
0.075000 0.025000 0.275000 
0.100000 0.025000 0.275000 
0.000000 0.050000 0.275000 
0.025000 0.050000 0.275000 
0.050000 0.050000 0.275000 
0.075000 0.050000 0.275000 
0.100000 0.050000 0.275000 
0.000000 0.075000 0.275000 
0.025000 0.075000 0.275000 
0.050000 0.075000 0.275000 
0.075000 0.075000 0.275000 
0.100000 0.075000 0.275000 
0.000000 0.100000 0.275000 
0.025000 0.100000 0.275000 
0.050000 0.100000 0.275000 
0.075000 0.100000 0.275000 
0.100000 0.100000 0.275000 
0.000000 0.000000 0.300000 
0.025000 0.000000 0.300000 
0.050000 0.000000 0.300000 
0.075000 0.000000 0.300000 
0.100000 0.000000 0.300000 
0.000000 0.025000 0.300000 
0.025000 0.025000 0.300000 
0.050000 0.025000 0.300000 
0.075000 0.025000 0.300000 
0.100000 0.025000 0.300000 
0.000000 0.050000 0.300000 
0.025000 0.050000 0.300000 
0.050000 0.050000 0.300000 
0.075000 0.050000 0.300000 
0.100000 0.050000 0.300000 
0.000000 0.075000 0.300000 
0.025000 0.075000 0.300000 
0.050000 0.075000 0.300000 
0.075000 0.075000 0.300000 
0.100000 0.075000 0.300000 
0.000000 0.100000 0.300000 
0.025000 0.100000 0.300000 
0.050000 0.100000 0.300000 
0.075000 0.100000 0.300000 
0.100000 0.100000 0.300000 
0.000000 0.000000 0.325000 
0.025000 0.000000 0.325000 
0.050000 0.000000 0.325000 
0.075000 0.000000 0.325000 
0.100000 0.000000 0.325000 
0.000000 0.025000 0.325000 
0.025000 0.025000 0.325000 
0.050000 0.025000 0.325000 
0.075000 0.025000 0.325000 
0.100000 0.025000 0.325000 
0.000000 0.050000 0.325000 
0.025000 0.050000 0.325000 
0.050000 0.050000 0.325000 
0.075000 0.050000 0.325000 
0.100000 0.050000 0.325000 
0.000000 0.075000 0.325000 
0.025000 0.075000 0.325000 
0.050000 0.075000 0.325000 
0.075000 0.075000 0.325000 
0.100000 0.075000 0.325000 
0.000000 0.100000 0.325000 
0.025000 0.100000 0.325000 
0.050000 0.100000 0.325000 
0.075000 0.100000 0.325000 
[...]
<PointData  Scalars="u">
<DataArray  type="Float32"  Name="VectorField1"  NumberOfComponents="3" format="ascii">
0.000000 0.000000 0.000000 
0.000000 0.000000 0.000000 
0.000000 0.000000 0.000000 
0.000000 0.000000 0.000000 
0.000000 0.000000 0.000000 
0.000000 0.000000 0.000000 
0.000000 0.000000 0.000000 
0.000000 0.000000 0.000000 
0.000000 0.000000 0.000000 
0.000000 0.000000 0.000000 
0.000000 0.000000 0.000000 
0.000000 0.000000 0.000000 
0.000000 0.000000 0.000000 
0.000000 0.000000 0.000000 
0.000000 0.000000 0.000000 
0.000000 0.000000 0.000000 
0.000000 0.000000 0.000000 
0.000000 0.000000 0.000000 
0.000000 0.000000 0.000000 
0.000000 0.000000 0.000000 
0.000000 0.000000 0.000000 
0.000000 0.000000 0.000000 
0.000000 0.000000 0.000000 
0.000000 0.000000 0.000000 
0.000000 0.000000 0.000000 
2789859.864258 2754785445120.000000 -571103785536.000000 
-11619103177.000000 1009588812800.000000 167070840224.000000 
-374844839.156250 138499169440.000000 167158806176.000000 
9366274773.000000 243241925360.000000 -120574223304.000000 
47985535060.000000 932224086080.000000 631663645376.000000 
-11835588991.000000 -6323156987904.000000 2125070743552.000000 
-9160947805.000000 182779219408.000000 133766954160.000000 
10853600468.000000 -510839692288.000000 282549452512.000000 
4817554133.500000 484526781440.000000 205128747440.000000 
-2214942393.500000 -831163552192.000000 481440478112.000000 
20389200210.000000 5948619396096.000000 -765015376768.000000 
-44798460304.000000 3806453181952.000000 -971215286208.000000 
60911660888.000000 -194353721968.000000 -471746180288.000000 
-20872594392.000000 -1203553448448.000000 845492379968.000000 
130042142112.000000 9751009812480.000000 172764640880.000000 
33136411260.000000 237977312432.000000 -7248998787.000000 
-90113889936.000000 -4132671176192.000000 1072898318080.000000 
106739379032.000000 5105890721792.000000 1670038838784.000000 
-6538523368.000000 1531604516480.000000 26721510126.000000 
-25672896212.000000 -3398843162880.000000 937717417920.000000 
-14277362575.000000 -448472699328.000000 -89671402256.000000 
116386934016.000000 5072799550464.000000 268489649472.000000 
-129814652368.000000 -6600247240704.000000 -109796865560.000000 
3647526713.000000 338392854784.000000 -424405727744.000000 
15404486983.000000 1331825116032.000000 -296899265888.000000 
62054508812.000000 1624111907968.000000 -44609540980.000000 
20545867440.000000 -469371177920.000000 108727984000.000000 
-5614344413.000000 -1026652171264.000000 265333386272.000000 
-17511775408.000000 306631433440.000000 -145295777200.000000 
-10795836322.000000 -1340496134784.000000 -523481196480.000000 
-178350413824.000000 -9476189976576.000000 -832302765696.000000 
-4349199004.500000 -657212279104.000000 -20938107736.000000 
-23644659068.000000 -784840149824.000000 -187728335344.000000 
-14109318705.000000 -936074198080.000000 -144699602992.000000 
-27100178806.000000 -1980135773824.000000 -89568206288.000000 
276672096160.000000 1259472910592.000000 576949672512.000000 
33663123716.000000 2351171816704.000000 1546219148544.000000 
-11222817910.000000 1533212115712.000000 310741888800.000000 
22852603870.000000 -4369115232768.000000 -162071094176.000000 
35500319032.000000 2996399828736.000000 -2978296209408.000000 
-31526537100.000000 345834569920.000000 -390542350080.000000 
-202923615984.000000 -8425775349760.000000 1056195881472.000000 
120013285104.000000 -1157323512320.000000 -2879006520576.000000 
-72688359072.000000 -1442287178112.000000 74362452480.000000 
-59417495504.000000 -6859068240384.000000 135191640864.000000 
5743206074.000000 1308739666304.000000 113578906544.000000 
-12500753390.000000 -6352085533184.000000 -1217813529600.000000 
-143615743392.000000 8557196599296.000000 -420466920832.000000 
51669936960.000000 1806426796672.000000 459207412704.000000 
5628993074.000000 1557589564032.000000 -318108424032.000000 
-55201107368.000000 -1644833310464.000000 225567284848.000000 
-16560555982.000000 -52310346972.000000 -78446846784.000000 
-15638302886.000000 -317365678080.000000 -167101977088.000000 
1923263224.375000 -811641562880.000000 227485282432.000000 
-11648678807.000000 133067446000.000000 132270010096.000000 
-70315802272.000000 7241168536576.000000 -1108221591808.000000 
-2427734922.250000 166819911360.000000 -129439521344.000000 
12050475164.000000 500861399488.000000 -16141683256.000000 
-7033655142.500000 -91280178192.000000 69528035072.000000 
12702352317.000000 1169141196416.000000 -245660193904.000000 
-105383552296.000000 -1011405134592.000000 -592544808640.000000 
-27739499252.000000 -5424038397440.000000 -1133235183872.000000 
52758778732.000000 -192234625392.000000 -630407702144.000000 
89658754752.000000 7393310040576.000000 -911874652288.000000 
-29611952832.000000 1279265759744.000000 3248428408832.000000 
14134339874.000000 471482792160.000000 223353172768.000000 
-17487842086.000000 1979782212096.000000 -703906830656.000000 
-58368377440.000000 3954381906944.000000 1665604445824.000000 
-32696496464.000000 -992528278912.000000 165914475712.000000 
17726093648.000000 1798322642048.000000 -71229755808.000000 
21006654292.000000 -296892083840.000000 -100722864016.000000 
24708659368.000000 5436899269120.000000 122841116016.000000 
147771377344.000000 -1209083884544.000000 948267399936.000000 
-6740969596.500000 -727520774592.000000 -530480172672.000000 
10906488172.000000 -473919261664.000000 641891817856.000000 
-64996959344.000000 -4965296254976.000000 621442792704.000000 
657406749.062500 220043433136.000000 53921740764.000000 
15021633946.000000 1269330542592.000000 -99144433424.000000 
-33998671076.000000 -1215949889408.000000 188396136288.000000 
12693315986.000000 931746772928.000000 71705969544.000000 
438715646048.000000 14559560955904.000000 119630343192.000000 
1509898443.875000 866705732352.000000 161485281664.000000 
23499109262.000000 1364041028736.000000 -39353938988.000000 
-2762172435.500000 453504358304.000000 127340332240.000000 
46507928108.000000 2561966196736.000000 83265348632.000000 
-44429806548.000000 -7181877506048.000000 685753876544.000000 
-173784746000.000000 -2730746268672.000000 2015172626176.000000 
-49257031120.000000 -236253175312.000000 530550057792.000000 
133789159968.000000 5512507310080.000000 -524212236288.000000 
-147724149776.000000 -15825929593856.000000 -155293872128.000000 
10554826862.000000 -843729334272.000000 90766481944.000000 
125410712480.000000 7811517150208.000000 486452130240.000000 
-15566927599.000000 -5907078687744.000000 -414502573184.000000 
-73067147304.000000 -1611510673920.000000 715556081024.000000 
96625450776.000000 5841133678080.000000 -849836207872.000000 
36719219272.000000 230538444400.000000 -90205249528.000000 
-52481983668.000000 -150638395504.000000 1363763390976.000000 
134053779488.000000 -1001934490624.000000 -674149528320.000000 
-15092968149.000000 -1156418683520.000000 306163047648.000000 
-34162909940.000000 -2656736904704.000000 -343322755072.000000 
-74361566808.000000 -227311268256.000000 -173969969200.000000 
3311454065.500000 316725689952.000000 -133880907072.000000 
25873466382.000000 675766088000.000000 114831609136.000000 
-6740759062.000000 -298033620384.000000 -125193795824.000000 
10473758124.000000 252151833312.000000 -324076631264.000000 
147340093152.000000 110927215168.000000 -922581854464.000000 
15543805249.000000 -289438459072.000000 -248701781088.000000 
13281396685.000000 -60071265364.000000 -186262522256.000000 
12847252748.000000 -364729874752.000000 -201466219072.000000 
36230332044.000000 -77456492632.000000 -436868662784.000000 
-168547681616.000000 1752780065280.000000 -412291870816.000000 
46303544060.000000 -741236639872.000000 -1081693865984.000000 
-4950175104.500000 -1062998053376.000000 -279570342240.000000 
32183100928.000000 -3194191050496.000000 132999160656.000000 
-216045441296.000000 1819609923840.000000 -769485598784.000000 
-37501901796.000000 71184424120.000000 -242057398496.000000 
288359297952.000000 4203258829824.000000 -1622407500672.000000 
-127810794528.000000 -1321529078016.000000 -293062639552.000000 
50915564836.000000 -409557219744.000000 -379034356128.000000 
117596786408.000000 2857001609728.000000 -377203571072.000000 
-90438229568.000000 -722793069504.000000 292987152416.000000 
-203557059888.000000 -13484581107712.000000 -673440509696.000000 
-60525508344.000000 6198408135680.000000 -768898051392.000000 
-43210633228.000000 -470574280224.000000 234982328496.000000 
-37685541688.000000 1270006813440.000000 140552541760.000000 
71221310624.000000 3580719004160.000000 -33093222948.000000 
13367673550.000000 -12139031618.000000 212595008160.000000 
-8136350885.000000 -737141697344.000000 -208648287104.000000 
31854194220.000000 1642443010048.000000 7241710802.000000 
-7474132569.000000 -398628812832.000000 400339186464.000000 
-307396808288.000000 -11741800194048.000000 245695865792.000000 
2214026952.500000 -104322066968.000000 323056383808.000000 
-15823317496.000000 -800818284864.000000 258080292480.000000 
5026643291.500000 786516979968.000000 114029218872.000000 
-56142284180.000000 -1773811932928.000000 469286737824.000000 
84081424432.000000 1798222851584.000000 493274969024.000000 
37913109968.000000 5056705572864.000000 40894666980.000000 
-22244804558.000000 -474357109696.000000 323904886784.000000 
-173550875360.000000 -4402127652352.000000 383709964384.000000 
220075880944.000000 10639152363520.000000 1867750697600.000000 
20779729480.000000 -168079276000.000000 370932495104.000000 
-108145380992.000000 -1904406855296.000000 530397254400.000000 
-14151088743.000000 866511962816.000000 2042923683840.000000 
23430700260.000000 3635075147520.000000 -11503584209.000000 
-64272794880.000000 -4448905935360.000000 721905678784.000000 
50351646372.000000 -1059211325440.000000 -438802391552.000000 
169314781680.000000 8151634847744.000000 198549930560.000000 
-99461454376.000000 -7321208297472.000000 1679335288320.000000 
32881011188.000000 786767673920.000000 -592287098944.000000 
51618583640.000000 894685236160.000000 200343018448.000000 
140891225328.000000 3661635696384.000000 -503238809984.000000 
-28696183690.000000 -588715492352.000000 -175365485632.000000 
-27371097758.000000 -967617880384.000000 309751296032.000000 
28539870632.000000 941531646464.000000 -186512544432.000000 
4562183060.000000 -791170254336.000000 -241691457280.000000 
-175932882640.000000 -8427254347776.000000 1957036051328.000000 
-39328695752.000000 -655336162624.000000 -233740549056.000000 
-32468034116.000000 -1096911330816.000000 -51833315444.000000 
-2692676224.500000 -451874596512.000000 -61267985284.000000 
-41981831524.000000 -2004768659968.000000 28897205770.000000 
200692914896.000000 4752644099072.000000 -723258139840.000000 
163888572720.000000 4750061818368.000000 -261165502912.000000 
19907668888.000000 1550175623168.000000 -169936688288.000000 
-193379282288.000000 -6855061351424.000000 690596720704.000000 
322345982592.000000 2120290825216.000000 -3627565711360.000000 
6616004760.500000 124665219552.000000 -263209264448.000000 
-196789377424.000000 -8683323520000.000000 582282231040.000000 
157183079088.000000 1720036980992.000000 -2966464527872.000000 
70635725840.000000 527147097728.000000 -376807298656.000000 
-198000138576.000000 -6591461990400.000000 5030325894.500000 
-18063539122.000000 1725772206464.000000 696593832640.000000 
22145233154.000000 11237687399424.000000 14960795815.000000 
17845055686.000000 -5963433026560.000000 -1158010991872.000000 
12092107874.000000 1336175613568.000000 708125823680.000000 
37456646948.000000 537821325248.000000 -669523257088.000000 
314762005.437500 -457841040544.000000 -44979832624.000000 
13514725377.000000 -135593010368.000000 137450342208.000000 
-21391043570.000000 -459758028928.000000 -20799265556.000000 
7421322869.500000 -479268621664.000000 -52810778140.000000 
-36243295832.000000 649938236416.000000 88843614288.000000 
-203498167648.000000 3319536845824.000000 -693465940416.000000 
26064938490.000000 -19421135650.000000 110662867104.000000 
-6790293430.000000 336158909824.000000 53606416920.000000 
-3449833841.750000 -216417701344.000000 -31539360128.000000 
-28203579126.000000 468884275072.000000 38267111848.000000 
-71006447624.000000 -524727191616.000000 172801510832.000000 
-794711990.625000 -4612785210880.000000 -371649235712.000000 
37045873032.000000 69776586520.000000 -144223405888.000000 
96863645128.000000 5331170062848.000000 71849940456.000000 
-64967842552.000000 6071936671232.000000 1562651152256.000000 
-6004930568.000000 1142476351872.000000 -151808800752.000000 
-125097066656.000000 -4841811123712.000000 340425637632.000000 
-4204262639.000000 5221557933568.000000 2253428806656.000000 
6566914592.500000 -358217191936.000000 11939172967.000000 
-80258463912.000000 -764359441920.000000 922174467008.000000 
-7963215525.000000 -128113804464.000000 -784694803712.000000 
106512247120.000000 -11337714488320.000000 -1084969091072.000000 
-93355675000.000000 12483770460160.000000 383143355424.000000 
34886610320.000000 -458931616704.000000 -817678495232.000000 
-10665443117.000000 1274607090176.000000 455563370912.000000 
-102860160992.000000 -4711050124288.000000 263730390592.000000 
-7983672229.000000 601735517888.000000 22717683758.000000 
15092805967.000000 782487425856.000000 -117399718400.000000 
-46448492788.000000 -1545256500480.000000 311625285376.000000 
28235575578.000000 -492765255584.000000 132617940176.000000 
348930620480.000000 8549187249152.000000 -422558939232.000000 
-4843489443.000000 1178386556416.000000 105162740176.000000 
30416760110.000000 1090207277440.000000 30449779336.000000 
-15214240996.000000 -120255174368.000000 206898286688.000000 
61418188844.000000 2153792908288.000000 14470244455.000000 
-21957659872.000000 -4995079594496.000000 -249420820512.000000 
-201840731952.000000 -2588003750912.000000 782444491456.000000 
-737678859.625000 764995255360.000000 105950494360.000000 
164690784320.000000 6947837594112.000000 -1016663839360.000000 
-144354649504.000000 -15001953856512.000000 411849308736.000000 
26462341588.000000 -815316695232.000000 411013643296.000000 
-22293450488.000000 7611786417152.000000 464877216224.000000 
73816876536.000000 -3532557474560.000000 -1937870237568.000000 
-126209192416.000000 -2849859606784.000000 450863343008.000000 
137633415920.000000 5511825913344.000000 -712237489536.000000 
76230514408.000000 -611844414144.000000 442239803296.000000 
33277099760.000000 3309126699264.000000 858020224704.000000 
158056772336.000000 -4488294254592.000000 632356110400.000000 
-32696599232.000000 -322017389952.000000 487762169536.000000 
-14247015532.000000 -3101420433920.000000 -109697567832.000000 
-101876510312.000000 -2955292879872.000000 482936819008.000000 
12042173232.000000 -92768439344.000000 -247711379840.000000 
36210397800.000000 1313813259904.000000 85010185752.000000 
-34341436996.000000 -869957448640.000000 -141100932848.000000 
21576573482.000000 993710399744.000000 -355132233344.000000 
392937692512.000000 9980391548928.000000 -465132357280.000000 
13715727577.000000 -547172510848.000000 -411368458528.000000 
29923642082.000000 559778729600.000000 -305758013056.000000 
10609710935.000000 -8307739952.000000 -268939534272.000000 
75428564712.000000 1537487836928.000000 -492685774688.000000 
-110153980960.000000 -1499544544640.000000 954152383360.000000 
-45200714512.000000 -4562831449088.000000 202014848736.000000 
-18928163912.000000 -1627604805632.000000 -141312407600.000000 
143928393488.000000 2054845038336.000000 -182437250016.000000 
-300830679680.000000 -7557964593664.000000 30311941064.000000 
-31194766600.000000 -583369731776.000000 -436625633280.000000 
372115360512.000000 5488019439104.000000 -1666156715264.000000 
-143720728848.000000 -4088178029568.000000 1207601551232.000000 
-7299218039.000000 -2359909874944.000000 -144285545632.000000 
189089709520.000000 6725063384576.000000 -777357855872.000000 
-84535685744.000000 1404594837632.000000 76873511400.000000 
-341396762272.000000 1038661202176.000000 9424707236.000000 
99401467536.000000 -2567846383616.000000 -1595813239168.000000 
-36664571624.000000 -1036111514880.000000 131547746272.000000 
-64097420408.000000 -661301229120.000000 95199805856.000000 
-13035525605.000000 2390709807872.000000 -115589351720.000000 
12885291916.000000 332820612352.000000 304521686560.000000 
14681659149.000000 -97530565584.000000 -280576932864.000000 
18356515500.000000 1023224284672.000000 226340654112.000000 
-25080631854.000000 516117389056.000000 304152875648.000000 
-230169273536.000000 -4528732628480.000000 -1223950905088.000000 
8544957879.000000 215899141856.000000 498579781664.000000 
-9886283609.000000 -82431671672.000000 220696618128.000000 
6123163612.000000 713946629184.000000 255445025760.000000 
-36796313740.000000 -512837623040.000000 308318792128.000000 
-76524385664.000000 1918116250240.000000 -634251102208.000000 
22105728044.000000 4687817636352.000000 -49196555708.000000 
-36591972848.000000 -494917268096.000000 326470037664.000000 
-44599211924.000000 -3588927087104.000000 89461856736.000000 
-35564088896.000000 9817024638976.000000 1436086369152.000000 
-21068076008.000000 300679354912.000000 342138329888.000000 
35402190420.000000 3039506305024.000000 770120391040.000000 
-127994911040.000000 1063689772032.000000 532409620416.000000 
8291862596.000000 3620440260352.000000 473007467776.000000 
40909165720.000000 -1254313414144.000000 352228533792.000000 
27062326038.000000 -2379090920192.000000 -722508983488.000000 
94695371024.000000 -13564928015360.000000 464963282912.000000 
-199409221808.000000 9037631679488.000000 989301791616.000000 
15845171092.000000 -615374531456.000000 -447935868640.000000 
13973907177.000000 1698428738560.000000 180782224608.000000 
161212332256.000000 3911315568128.000000 -284466757888.000000 
-18327848234.000000 -387137607808.000000 -270375266528.000000 
-32191575704.000000 -1071142409344.000000 243500631072.000000 
41901131428.000000 1512865290752.000000 -286425563232.000000 
22564700210.000000 -2061581499648.000000 -180549160384.000000 
-184153002608.000000 -15711436764160.000000 2041533130752.000000 
-30747086236.000000 -502132340864.000000 -378356650240.000000 
-24605750452.000000 -1666271031040.000000 -62723244328.000000 
3761956565.750000 -395822479552.000000 -240506380912.000000 
-38778577844.000000 -3274043126528.000000 -94071825680.000000 
239794315568.000000 1435267473280.000000 231348253280.000000 
156852950304.000000 5319791538176.000000 -539862384896.000000 
7400575822.000000 154276823520.000000 -157689288976.000000 
-330891936384.000000 -9620599339008.000000 591360583808.000000 
444178710816.000000 3851816363008.000000 -2218326144256.000000 
34762504064.000000 -314668735392.000000 15987664396.000000 
-113961376344.000000 -5924122015744.000000 -1322049994112.000000 
150518671776.000000 -2524215370752.000000 -1146490775040.000000 
77468865992.000000 1457388329984.000000 -927957983808.000000 
-163733332800.000000 -7818966664704.000000 -293750201888.000000 
-9279801206.000000 771428361600.000000 1450311964544.000000 
125609981168.000000 12858208357376.000000 20175993068.000000 
63324872040.000000 -11727033407488.000000 159915254560.000000 
-9404300162.000000 2448179604480.000000 714104748928.000000 
64969947208.000000 329392484832.000000 -321602598176.000000 
76783894992.000000 2507784915968.000000 -265099457984.000000 
-9307228010.000000 -535334590720.000000 171207053184.000000 
-24833479814.000000 -934979814784.000000 30917530530.000000 
31791932072.000000 472835635968.000000 -136142353296.000000 
-37969872540.000000 928068719360.000000 142388393904.000000 
-271153835904.000000 -1340336777984.000000 628891745792.000000 
-2801148858.000000 -507268758656.000000 190750646752.000000 
-31133592642.000000 -198276414288.000000 128679404032.000000 
2362783089.750000 92884735360.000000 74542146832.000000 